# 3D Lennard-Jones melt simulation - Liquid phase (T = 4.0)

variable    x index 1
variable    y index 1
variable    z index 1

variable    xx equal 10*${x}
variable    xx equal 10*1
variable    yy equal 10*${y}
variable    yy equal 10*1
variable    zz equal 10*${z}
variable    zz equal 10*1

variable    T equal 4.0  # Temperatura (liquido)

units       lj
atom_style  atomic

lattice     fcc 0.8
Lattice spacing in x,y,z = 1.7099759 1.7099759 1.7099759
region      box block 0 ${xx} 0 ${yy} 0 ${zz}
region      box block 0 10 0 ${yy} 0 ${zz}
region      box block 0 10 0 10 0 ${zz}
region      box block 0 10 0 10 0 10
create_box  1 box
Created orthogonal box = (0 0 0) to (17.099759 17.099759 17.099759)
  1 by 2 by 2 MPI processor grid
create_atoms 1 box
Created 4000 atoms
  using lattice units in orthogonal box = (0 0 0) to (17.099759 17.099759 17.099759)
  create_atoms CPU = 0.005 seconds
mass        1 1.0

velocity    all create ${T} 87287 loop geom
velocity    all create 4 87287 loop geom

pair_style  lj/cut 2.5
pair_coeff  1 1 1.0 1.0 2.5

neighbor    0.3 bin
neigh_modify delay 0 every 20 check no

fix         1 all nvt temp ${T} ${T} 0.01
fix         1 all nvt temp 4 ${T} 0.01
fix         1 all nvt temp 4 4 0.01

thermo_style custom step temp density pe ke etotal
thermo      500

compute     RDFEMD all rdf 100 1 1
fix         RDFEMD all ave/time 100 1 100 c_RDFEMD[*] file LJ_T${T}.rdf mode vector
fix         RDFEMD all ave/time 100 1 100 c_RDFEMD[*] file LJ_T4.rdf mode vector

dump        traj all atom 100 dump_T${T}.lammpstrj
dump        traj all atom 100 dump_T4.lammpstrj

run         100000
Generated 0 of 0 mixed pair_coeff terms from geometric mixing rule
Neighbor list info ...
  update: every = 20 steps, delay = 0 steps, check = no
  max neighbors/atom: 2000, page size: 100000
  master list distance cutoff = 2.8
  ghost atom cutoff = 2.8
  binsize = 1.4, bins = 13 13 13
  2 neighbor lists, perpetual/occasional/extra = 1 1 0
  (1) pair lj/cut, perpetual
      attributes: half, newton on
      pair build: half/bin/atomonly/newton
      stencil: half/bin/3d
      bin: standard
  (2) compute rdf, occasional, copy from (1)
      attributes: half, newton on
      pair build: copy
      stencil: none
      bin: none
Per MPI rank memory allocation (min/avg/max) = 4.351 | 4.351 | 4.351 Mbytes
   Step          Temp         Density         PotEng         KinEng         TotEng    
         0   4              0.8           -6.3647465      5.9985        -0.3662465    
       500   4.007826       0.8           -3.0286172      6.0102361      2.9816189    
      1000   3.9936924      0.8           -3.1217701      5.989041       2.8672708    
      1500   3.9203411      0.8           -3.0055902      5.8790415      2.8734513    
      2000   3.9904526      0.8           -3.0320845      5.9841825      2.9520981    
      2500   4.0099952      0.8           -3.1214188      6.0134891      2.8920703    
      3000   4.0147877      0.8           -3.0385472      6.0206759      2.9821288    
      3500   4.0611749      0.8           -3.0195562      6.0902394      3.0706832    
      4000   3.9962007      0.8           -3.0118942      5.9928025      2.9809083    
      4500   3.930126       0.8           -2.9581071      5.8937153      2.9356082    
      5000   4.0132094      0.8           -2.986088       6.0183091      3.0322211    
      5500   3.9332495      0.8           -3.0600806      5.8983993      2.8383188    
      6000   4.0233468      0.8           -3.0448927      6.0335114      2.9886187    
      6500   4.0885752      0.8           -3.0786899      6.1313296      3.0526397    
      7000   3.9963971      0.8           -3.0245378      5.993097       2.9685591    
      7500   4.0130661      0.8           -3.084725       6.0180942      2.9333693    
      8000   4.0571858      0.8           -3.000589       6.0842573      3.0836683    
      8500   3.9144634      0.8           -3.0494395      5.8702272      2.8207877    
      9000   4.0749447      0.8           -3.0916777      6.110889       3.0192113    
      9500   4.0000144      0.8           -3.1393642      5.9985217      2.8591574    
     10000   3.9549528      0.8           -2.9734663      5.930946       2.9574798    
     10500   3.9735669      0.8           -2.9599936      5.9588603      2.9988667    
     11000   4.0168842      0.8           -3.0941491      6.02382        2.9296709    
     11500   3.9719138      0.8           -3.0858891      5.9563812      2.870492     
     12000   4.0023288      0.8           -3.032501       6.0019923      2.9694912    
     12500   3.9591286      0.8           -3.1060242      5.9372083      2.831184     
     13000   3.9506982      0.8           -3.1014475      5.9245658      2.8231183    
     13500   3.9664997      0.8           -3.0734151      5.9482622      2.8748471    
     14000   3.9211112      0.8           -3.0858072      5.8801964      2.7943891    
     14500   3.9066401      0.8           -3.0170174      5.8584951      2.8414777    
     15000   4.0273473      0.8           -2.9942924      6.0395107      3.0452184    
     15500   4.0182355      0.8           -3.0581343      6.0258464      2.9677121    
     16000   3.9764295      0.8           -3.0287227      5.9631531      2.9344303    
     16500   4.0281377      0.8           -3.1639168      6.0406961      2.8767793    
     17000   4.0411307      0.8           -3.0280685      6.0601806      3.0321121    
     17500   3.9779316      0.8           -3.0978196      5.9654056      2.867586     
     18000   3.9970217      0.8           -3.0469028      5.9940336      2.9471308    
     18500   4.0280054      0.8           -2.9914945      6.0404976      3.0490031    
     19000   3.9850556      0.8           -3.0127768      5.976089       2.9633123    
     19500   4.0177184      0.8           -3.098982       6.0250709      2.9260889    
     20000   3.9682702      0.8           -2.9845848      5.9509171      2.9663324    
     20500   4.0743792      0.8           -3.0804402      6.1100409      3.0296007    
     21000   4.0012681      0.8           -3.0571705      6.0004017      2.9432313    
     21500   4.0479849      0.8           -3.0666039      6.0704593      3.0038553    
     22000   4.0322059      0.8           -3.02849        6.0467967      3.0183068    
     22500   3.8153499      0.8           -2.9706232      5.7215941      2.7509709    
     23000   3.9471257      0.8           -3.0861759      5.9192084      2.8330325    
     23500   3.9714919      0.8           -2.9808184      5.9557485      2.9749301    
     24000   3.9189243      0.8           -3.0565568      5.8769169      2.8203601    
     24500   4.003665       0.8           -3.0302803      6.0039961      2.9737158    
     25000   4.0423183      0.8           -3.0906537      6.0619616      2.9713079    
     25500   4.020581       0.8           -3.0680519      6.0293637      2.9613118    
     26000   4.0026986      0.8           -3.0831051      6.0025468      2.9194417    
     26500   4.0198399      0.8           -3.0330763      6.0282524      2.9951761    
     27000   3.9832777      0.8           -3.0217271      5.9734228      2.9516957    
     27500   3.9893236      0.8           -3.0539887      5.9824894      2.9285008    
     28000   4.0012465      0.8           -2.9845861      6.0003694      3.0157833    
     28500   3.9063087      0.8           -3.0334992      5.8579981      2.8244989    
     29000   3.9879255      0.8           -3.162076       5.9803928      2.8183168    
     29500   3.9496617      0.8           -3.007185       5.9230115      2.9158265    
     30000   4.0227177      0.8           -3.0796187      6.0325681      2.9529494    
     30500   3.9586341      0.8           -3.0999352      5.9364667      2.8365315    
     31000   4.0429423      0.8           -3.132831       6.0628973      2.9300663    
     31500   3.9832523      0.8           -3.1053947      5.9733847      2.86799      
     32000   4.1106465      0.8           -3.0669769      6.1644283      3.0974514    
     32500   3.9389126      0.8           -3.1073925      5.9068918      2.7994993    
     33000   4.0429314      0.8           -3.0474758      6.0628809      3.0154052    
     33500   4.0503776      0.8           -3.0786827      6.0740475      2.9953648    
     34000   3.98725        0.8           -3.1404028      5.9793798      2.838977     
     34500   4.0369752      0.8           -3.1195527      6.0539489      2.9343962    
     35000   3.995503       0.8           -3.0316425      5.9917562      2.9601136    
     35500   3.955951       0.8           -3.0166847      5.932443       2.9157583    
     36000   4.0270159      0.8           -3.1085592      6.0390138      2.9304546    
     36500   4.0146194      0.8           -3.1127796      6.0204236      2.907644     
     37000   3.9776886      0.8           -3.040734       5.9650413      2.9243073    
     37500   4.0015074      0.8           -3.0337781      6.0007605      2.9669825    
     38000   3.9931638      0.8           -3.0615339      5.9882483      2.9267144    
     38500   3.9499188      0.8           -3.0963636      5.9233969      2.8270333    
     39000   3.9454203      0.8           -3.0604743      5.9166509      2.8561766    
     39500   3.955895       0.8           -3.0286069      5.932359       2.9037521    
     40000   4.0702461      0.8           -2.9877699      6.1038429      3.1160729    
     40500   4.0499556      0.8           -3.1201145      6.0734146      2.9533001    
     41000   3.9914876      0.8           -3.0176226      5.9857347      2.9681121    
     41500   3.9732336      0.8           -3.1117525      5.9583605      2.846608     
     42000   4.0292774      0.8           -3.1104335      6.0424051      2.9319716    
     42500   4.0772828      0.8           -3.0486937      6.1143953      3.0657016    
     43000   3.9187885      0.8           -3.0086962      5.8767132      2.868017     
     43500   4.05359        0.8           -3.1020133      6.0788649      2.9768517    
     44000   3.9428815      0.8           -3.0642848      5.9128436      2.8485588    
     44500   4.0012725      0.8           -3.1051374      6.0004082      2.8952708    
     45000   4.0208226      0.8           -2.998378       6.0297261      3.031348     
     45500   4.0940635      0.8           -3.0185959      6.13956        3.1209641    
     46000   4.0547299      0.8           -3.0933849      6.0805743      2.9871894    
     46500   3.9530987      0.8           -3.0712124      5.9281657      2.8569533    
     47000   4.0298142      0.8           -3.1028131      6.0432101      2.940397     
     47500   4.0416696      0.8           -2.9868471      6.0609888      3.0741417    
     48000   4.0352536      0.8           -3.054591       6.0513672      2.9967762    
     48500   3.8270345      0.8           -2.9617465      5.7391166      2.7773701    
     49000   4.0914772      0.8           -3.0537094      6.1356815      3.081972     
     49500   3.9734616      0.8           -3.061188       5.9587023      2.8975143    
     50000   4.089496       0.8           -3.1094199      6.1327105      3.0232906    
     50500   4.0303602      0.8           -3.043525       6.044029       3.000504     
     51000   4.1229116      0.8           -2.9946031      6.1828214      3.1882183    
     51500   4.0388481      0.8           -3.1531128      6.0567575      2.9036447    
     52000   3.9766052      0.8           -2.9764517      5.9634166      2.9869649    
     52500   3.949098       0.8           -3.0579147      5.9221661      2.8642514    
     53000   3.9957645      0.8           -3.1462917      5.9921484      2.8458567    
     53500   4.0251709      0.8           -3.0830341      6.0362469      2.9532127    
     54000   3.9697037      0.8           -3.111993       5.9530668      2.8410738    
     54500   3.9421097      0.8           -3.1083616      5.9116863      2.8033247    
     55000   3.9939409      0.8           -3.0281099      5.9894137      2.9613038    
     55500   3.8725274      0.8           -3.1399114      5.807339       2.6674275    
     56000   3.9601474      0.8           -3.143332       5.9387361      2.7954041    
     56500   3.9649649      0.8           -2.9652973      5.9459604      2.9806632    
     57000   3.9786931      0.8           -3.0063711      5.9665476      2.9601766    
     57500   3.945768       0.8           -3.1268268      5.9171724      2.7903456    
     58000   3.9778889      0.8           -3.026418       5.9653417      2.9389237    
     58500   4.0052856      0.8           -2.990686       6.0064264      3.0157403    
     59000   4.023142       0.8           -3.0941701      6.0332043      2.9390342    
     59500   4.0212434      0.8           -3.0657397      6.0303572      2.9646175    
     60000   3.9704794      0.8           -3.0196701      5.9542302      2.93456      
     60500   3.9716486      0.8           -3.0811165      5.9559835      2.874867     
     61000   4.02035        0.8           -3.0848087      6.0290174      2.9442087    
     61500   3.9249633      0.8           -3.079661       5.8859731      2.8063121    
     62000   4.0217419      0.8           -3.0690621      6.0311047      2.9620426    
     62500   3.9628381      0.8           -3.0810656      5.9427711      2.8617055    
     63000   3.9911826      0.8           -3.0045437      5.9852771      2.9807334    
     63500   4.0525823      0.8           -3.094177       6.0773537      2.9831766    
     64000   3.9773355      0.8           -3.0789819      5.9645118      2.8855299    
     64500   3.9143227      0.8           -3.1528747      5.8700161      2.7171414    
     65000   3.947711       0.8           -3.0217742      5.9200862      2.898312     
     65500   4.0530655      0.8           -3.018715       6.0780783      3.0593633    
     66000   4.0162146      0.8           -3.0479705      6.0228158      2.9748453    
     66500   4.019763       0.8           -3.0395121      6.028137       2.9886249    
     67000   3.9757928      0.8           -3.0412518      5.9621983      2.9209465    
     67500   4.0811156      0.8           -3.0165205      6.120143       3.1036224    
     68000   3.9602234      0.8           -3.0627891      5.93885        2.8760609    
     68500   4.0489736      0.8           -3.0563405      6.0719421      3.0156016    
     69000   4.0631039      0.8           -3.0274144      6.0931321      3.0657178    
     69500   4.0213107      0.8           -3.1737192      6.030458       2.8567388    
     70000   3.990161       0.8           -3.0686493      5.9837452      2.9150959    
     70500   4.0694214      0.8           -3.0303122      6.102606       3.0722939    
     71000   4.0682988      0.8           -3.0813823      6.1009226      3.0195403    
     71500   4.0527659      0.8           -3.0317006      6.077629       3.0459284    
     72000   3.9996378      0.8           -3.0781338      5.9979569      2.9198231    
     72500   4.0544135      0.8           -3.0899749      6.0800998      2.9901249    
     73000   4.0236532      0.8           -3.1044226      6.0339709      2.9295484    
     73500   4.0085368      0.8           -3.0387248      6.011302       2.9725771    
     74000   3.9858922      0.8           -3.1262628      5.9773436      2.8510808    
     74500   4.0217981      0.8           -3.099951       6.031189       2.931238     
     75000   4.0089748      0.8           -3.0892937      6.0119589      2.9226652    
     75500   4.045225       0.8           -3.0888333      6.0663206      2.9774873    
     76000   3.9296892      0.8           -3.0616626      5.8930602      2.8313975    
     76500   4.0688519      0.8           -2.9681287      6.101752       3.1336233    
     77000   3.9489923      0.8           -3.1209196      5.9220076      2.801088     
     77500   3.9209682      0.8           -2.9857484      5.8799819      2.8942336    
     78000   4.0372035      0.8           -3.0248169      6.0542912      3.0294744    
     78500   3.9516887      0.8           -3.1316582      5.9260512      2.794393     
     79000   4.0287885      0.8           -3.1371956      6.0416719      2.9044764    
     79500   3.9488249      0.8           -3.040684       5.9217565      2.8810725    
     80000   3.9850623      0.8           -3.0987576      5.9760991      2.8773414    
     80500   4.0573799      0.8           -3.1033499      6.0845484      2.9811985    
     81000   3.9412652      0.8           -3.0807866      5.9104199      2.8296333    
     81500   3.9495212      0.8           -3.1301499      5.9228007      2.7926509    
     82000   3.9764878      0.8           -3.1146353      5.9632405      2.8486053    
     82500   4.0238376      0.8           -3.0571902      6.0342475      2.9770574    
     83000   3.9205673      0.8           -3.0519205      5.8793807      2.8274602    
     83500   3.9476453      0.8           -3.0487062      5.9199876      2.8712814    
     84000   3.97076        0.8           -3.0500741      5.954651       2.9045769    
     84500   4.0492835      0.8           -3.0600004      6.0724068      3.0124064    
     85000   3.9538409      0.8           -3.1308468      5.9292786      2.7984319    
     85500   4.0070505      0.8           -2.9952373      6.0090731      3.0138358    
     86000   4.0240983      0.8           -3.0950311      6.0346385      2.9396073    
     86500   3.9321387      0.8           -3.065348       5.8967335      2.8313855    
     87000   4.1113139      0.8           -3.0484932      6.1654292      3.116936     
     87500   4.0074795      0.8           -3.0984365      6.0097165      2.91128      
     88000   4.0659344      0.8           -3.0993598      6.0973769      2.9980171    
     88500   3.9761811      0.8           -3.0503313      5.9627806      2.9124493    
     89000   4.0591749      0.8           -3.0567242      6.0872402      3.030516     
     89500   4.0199467      0.8           -3.0876858      6.0284126      2.9407268    
     90000   4.0280862      0.8           -2.9763267      6.0406188      3.0642921    
     90500   4.0548667      0.8           -3.0781151      6.0807795      3.0026644    
     91000   4.0329326      0.8           -3.0523794      6.0478866      2.9955072    
     91500   4.0848543      0.8           -3.0726073      6.1257496      3.0531423    
     92000   4.0591845      0.8           -3.0941491      6.0872546      2.9931054    
     92500   4.0233302      0.8           -3.0576005      6.0334866      2.975886     
     93000   4.0175117      0.8           -3.0617813      6.024761       2.9629796    
     93500   3.9337611      0.8           -3.063235       5.8991665      2.8359315    
     94000   4.0266725      0.8           -3.0786235      6.0384987      2.9598752    
     94500   4.039596       0.8           -3.0381081      6.0578791      3.0197711    
     95000   3.9214106      0.8           -3.2017584      5.8806454      2.6788871    
     95500   4.0185539      0.8           -3.1031698      6.0263238      2.923154     
     96000   3.8987243      0.8           -3.0420879      5.8466244      2.8045365    
     96500   4.0378184      0.8           -3.1033521      6.0552134      2.9518613    
     97000   4.0068367      0.8           -3.0301333      6.0087526      2.9786193    
     97500   4.0549713      0.8           -3.0739802      6.0809364      3.0069561    
     98000   4.0587581      0.8           -2.995355       6.0866151      3.0912601    
     98500   3.9306974      0.8           -3.0693355      5.8945721      2.8252366    
     99000   3.9553396      0.8           -3.0419231      5.9315261      2.889603     
     99500   4.0107682      0.8           -3.0759908      6.0146482      2.9386574    
    100000   4.0073874      0.8           -3.0376405      6.0095784      2.9719378    
Loop time of 233.289 on 8 procs for 100000 steps with 4000 atoms

Performance: 185178.018 tau/day, 428.653 timesteps/s, 1.715 Matom-step/s
96.8% CPU use with 4 MPI tasks x 2 OpenMP threads

MPI task timing breakdown:
Section |  min time  |  avg time  |  max time  |%varavg| %total
---------------------------------------------------------------
Pair    | 130.69     | 133.16     | 134.31     |  12.5 | 57.08
Neigh   | 18.926     | 19.103     | 19.232     |   2.6 |  8.19
Comm    | 59.765     | 61.024     | 62.86      |  15.0 | 26.16
Output  | 5.362      | 7.3894     | 9.0402     |  51.6 |  3.17
Modify  | 11.018     | 11.476     | 12.352     |  15.6 |  4.92
Other   |            | 1.136      |            |       |  0.49

Nlocal:           1000 ave        1009 max         986 min
Histogram: 1 0 0 0 0 0 1 1 0 1
Nghost:           2634 ave        2644 max        2630 min
Histogram: 3 0 0 0 0 0 0 0 0 1
Neighs:        36169.8 ave       36783 max       35587 min
Histogram: 1 0 0 1 0 1 0 0 0 1

Total # of neighbors = 144679
Ave neighs/atom = 36.16975
Neighbor list builds = 5000
Dangerous builds not checked

write_data  final_T${T}.data
write_data  final_T4.data
System init for write_data ...
Generated 0 of 0 mixed pair_coeff terms from geometric mixing rule
Total wall time: 0:03:53

